# vtk DataFile Version 2.0
Written using VisIt writer
ASCII
DATASET UNSTRUCTURED_GRID
POINTS 15504 float
 2.521767020226e-001 -4.436044394970e-002 -4.847491532564e-002  2.521321773529e-001 -4.440495371819e-002 -4.858394712210e-002  2.520876526833e-001 -4.444946721196e-002 -4.869297891855e-002 
 2.520431578159e-001 -4.449397698045e-002 -4.880201071501e-002  2.519986331463e-001 -4.453849047422e-002 -4.891104251146e-002  2.519541382790e-001 -4.458300024271e-002 -4.902007430792e-002 
 2.519096136093e-001 -4.462751373649e-002 -4.912910610437e-002  2.518651187420e-001 -4.467202723026e-002 -4.923813790083e-002  2.518205940723e-001 -4.471653699875e-002 -4.934716597199e-002 
 2.517760694027e-001 -4.476105049253e-002 -4.945619776845e-002  2.517315745354e-001 -4.480556026101e-002 -4.956522956491e-002  2.516870498657e-001 -4.485007375479e-002 -4.967426136136e-002 
 2.516425549984e-001 -4.489458724856e-002 -4.978329315782e-002  2.515980303288e-001 -4.493909701705e-002 -4.989232495427e-002  2.515535354614e-001 -4.498361051083e-002 -5.000135675073e-002 
 2.515090107918e-001 -4.502812027931e-002 -5.011038854718e-002  2.514644861221e-001 -4.507263377309e-002 -5.021942034364e-002  2.514199912548e-001 -4.511714354157e-002 -5.032845214009e-002 
 2.513754665852e-001 -4.516165703535e-002 -5.043748393655e-002  2.513309717178e-001 -4.520617052913e-002 -5.054651200771e-002  2.512864470482e-001 -4.525068029761e-002 -5.065554380417e-002 
 2.512419521809e-001 -4.529519379139e-002 -5.076457560062e-002  2.511974275112e-001 -4.533970355988e-002 -5.087360739708e-002  2.511529028416e-001 -4.538421705365e-002 -5.098263919353e-002 
 2.511084079742e-001 -4.542872682214e-002 -5.109167098999e-002  2.510638833046e-001 -4.547324031591e-002 -5.120070278645e-002  2.510193884373e-001 -4.551775380969e-002 -5.130973458290e-002 
 2.509748637676e-001 -4.556226357818e-002 -5.141876637936e-002  2.509303689003e-001 -4.560677707195e-002 -5.152779817581e-002  2.508858442307e-001 -4.565128684044e-002 -5.163682997227e-002 
 2.508413195610e-001 -4.569580033422e-002 -5.174586176872e-002  2.507968246937e-001 -4.574031010270e-002 -5.185488983989e-002  2.507523000240e-001 -4.578482359648e-002 -5.196392163634e-002 
 2.507078051567e-001 -4.582933709025e-002 -5.207295343280e-002  2.506632804871e-001 -4.587384685874e-002 -5.218198522925e-002  2.506187856197e-001 -4.591836035252e-002 -5.229101702571e-002 
 2.505742609501e-001 -4.596287012100e-002 -5.240004882216e-002  2.505297362804e-001 -4.600738361478e-002 -5.250908061862e-002  2.504852414131e-001 -4.605189338326e-002 -5.261811241508e-002 
 2.504407167435e-001 -4.609640687704e-002 -5.272714421153e-002  2.503962218761e-001 -4.614092037082e-002 -5.283617600799e-002  2.503516972065e-001 -4.618543013930e-002 -5.294520780444e-002 
 2.503072023392e-001 -4.622994363308e-002 -5.305423587561e-002  2.502626776695e-001 -4.627445340157e-002 -5.316326767206e-002  2.502181529999e-001 -4.631896689534e-002 -5.327229946852e-002 
 2.501736581326e-001 -4.636348038912e-002 -5.338133126497e-002  2.501291334629e-001 -4.640799015760e-002 -5.349036306143e-002  2.500846385956e-001 -4.645250365138e-002 -5.359939485788e-002 
 2.500401139259e-001 -4.649701341987e-002 -5.370842665434e-002  2.499956041574e-001 -4.654152691364e-002 -5.381745845079e-002  2.499510943890e-001 -4.658603668213e-002 -5.392649024725e-002 
 2.554290890694e-001 -4.473040997982e-002 -4.705684259534e-002  2.554792165756e-001 -4.479942470789e-002 -4.714943468571e-002  2.555293738842e-001 -4.486843943596e-002 -4.724202677608e-002 
 2.555795013905e-001 -4.493745043874e-002 -4.733461886644e-002  2.556296586990e-001 -4.500646516681e-002 -4.742721095681e-002  2.556797862053e-001 -4.507547989488e-002 -4.751980677247e-002 
 2.557299435139e-001 -4.514449462295e-002 -4.761239886284e-002  2.557800710201e-001 -4.521350935102e-002 -4.770499095321e-002  2.558302283287e-001 -4.528252035379e-002 -4.779758304358e-002 
 2.558803558350e-001 -4.535153508186e-002 -4.789017513394e-002  2.559305131435e-001 -4.542054980993e-002 -4.798276722431e-002  2.559806406498e-001 -4.548956453800e-002 -4.807535931468e-002 
 2.560307979584e-001 -4.555857926607e-002 -4.816795140505e-002  2.560809254646e-001 -4.562759026885e-002 -4.826054349542e-002  2.561310827732e-001 -4.569660499692e-002 -4.835313931108e-002 
 2.561812102795e-001 -4.576561972499e-002 -4.844573140144e-002  2.562313675880e-001 -4.583463445306e-002 -4.853832349181e-002  2.562814950943e-001 -4.590364918113e-002 -4.863091558218e-002 
 2.563316226006e-001 -4.597266018391e-002 -4.872350767255e-002  2.563817799091e-001 -4.604167491198e-002 -4.881609976292e-002  2.564319074154e-001 -4.611068964005e-002 -4.890869185328e-002 
 2.564820647240e-001 -4.617970436811e-002 -4.900128394365e-002  2.565321922302e-001 -4.624871909618e-002 -4.909387603402e-002  2.565823495388e-001 -4.631773009896e-002 -4.918647184968e-002 
 2.566324770451e-001 -4.638674482703e-002 -4.927906394005e-002  2.566826343536e-001 -4.645575955510e-002 -4.937165603042e-002  2.567327618599e-001 -4.652477428317e-002 -4.946424812078e-002 
 2.567829191685e-001 -4.659378901124e-002 -4.955684021115e-002  2.568330466747e-001 -4.666280001402e-002 -4.964943230152e-002  2.568832039833e-001 -4.673181474209e-002 -4.974202439189e-002 
 2.569333314896e-001 -4.680082947016e-002 -4.983461648226e-002  2.569834887981e-001 -4.686984419823e-002 -4.992720857263e-002  2.570336163044e-001 -4.693885892630e-002 -5.001980438828e-002 
 2.570837736130e-001 -4.700786992908e-002 -5.011239647865e-002  2.571339011192e-001 -4.707688465714e-002 -5.020498856902e-002  2.571840584278e-001 -4.714589938521e-002 -5.029758065939e-002 
 2.572341859341e-001 -4.721491411328e-002 -5.039017274976e-002  2.572843134403e-001 -4.728392884135e-002 -5.048276484013e-002  2.573344707489e-001 -4.735293984413e-002 -5.057535693049e-002 
 2.573845982552e-001 -4.742195457220e-002 -5.066794902086e-002  2.574347555637e-001 -4.749096930027e-002 -5.076054111123e-002  2.574848830700e-001 -4.755998402834e-002 -5.085313692689e-002 
 2.575350403786e-001 -4.762899875641e-002 -5.094572901726e-002  2.575851678848e-001 -4.769800975919e-002 -5.103832110763e-002  2.576353251934e-001 -4.776702448726e-002 -5.113091319799e-002 
 2.576854526997e-001 -4.783603921533e-002 -5.122350528836e-002  2.577356100082e-001 -4.790505394340e-002 -5.131609737873e-002  2.577857375145e-001 -4.797406867146e-002 -5.140868946910e-002 
 2.578358948231e-001 -4.804307967424e-002 -5.150128155947e-002  2.578860223293e-001 -4.811209440231e-002 -5.159387364984e-002  2.579361796379e-001 -4.818110913038e-002 -5.168646574020e-002 
 2.571186125278e-001 -3.990343958139e-002 -4.261358082294e-002  2.572111785412e-001 -3.991810232401e-002 -4.269764572382e-002  2.573037445545e-001 -3.993276134133e-002 -4.278171062469e-002 
 2.573963105679e-001 -3.994742408395e-002 -4.286577552557e-002  2.574888765812e-001 -3.996208682656e-002 -4.294984042645e-002  2.575814723969e-001 -3.997674584389e-002 -4.303390160203e-002 
 2.576740384102e-001 -3.999140858650e-002 -4.311796650290e-002  2.577666044235e-001 -4.000606760383e-002 -4.320203140378e-002  2.578591704369e-001 -4.002073034644e-002 -4.328609630466e-002 
 2.579517364502e-001 -4.003539308906e-002 -4.337016120553e-002  2.580443024635e-001 -4.005005210638e-002 -4.345422610641e-002  2.581368684769e-001 -4.006471484900e-002 -4.353829100728e-002 
 2.582294344902e-001 -4.007937386632e-002 -4.362235218287e-002  2.583220005035e-001 -4.009403660893e-002 -4.370641708374e-002  2.584145665169e-001 -4.010869935155e-002 -4.379048198462e-002 
 2.585071325302e-001 -4.012335836887e-002 -4.387454688549e-002  2.585996985435e-001 -4.013802111149e-002 -4.395861178637e-002  2.586922645569e-001 -4.015268012881e-002 -4.404267668724e-002 
 2.587848305702e-001 -4.016734287143e-002 -4.412674158812e-002  2.588773965836e-001 -4.018200561404e-002 -4.421080276370e-002  2.589699625969e-001 -4.019666463137e-002 -4.429486766458e-002 
 2.590625286102e-001 -4.021132737398e-002 -4.437893256545e-002  2.591550946236e-001 -4.022598639131e-002 -4.446299746633e-002  2.592476606369e-001 -4.024064913392e-002 -4.454706236720e-002 
 2.593402266502e-001 -4.025531187654e-002 -4.463112726808e-002  2.594327926636e-001 -4.026997089386e-002 -4.471519216895e-002  2.595253586769e-001 -4.028463363647e-002 -4.479925334454e-002 
 2.596179246902e-001 -4.029929265380e-002 -4.488331824541e-002  2.597105205059e-001 -4.031395539641e-002 -4.496738314629e-002  2.598030865192e-001 -4.032861441374e-002 -4.505144804716e-002 
 2.598956525326e-001 -4.034327715635e-002 -4.513551294804e-002  2.599882185459e-001 -4.035793989897e-002 -4.521957784891e-002  2.600807845592e-001 -4.037259891629e-002 -4.530364274979e-002 
 2.601733505726e-001 -4.038726165891e-002 -4.538770392537e-002  2.602659165859e-001 -4.040192067623e-002 -4.547176882625e-002  2.603584825993e-001 -4.041658341885e-002 -4.555583372712e-002 
 2.604510486126e-001 -4.043124616146e-002 -4.563989862800e-002  2.605436146259e-001 -4.044590517879e-002 -4.572396352887e-002  2.606361806393e-001 -4.046056792140e-002 -4.580802842975e-002 
 2.607287466526e-001 -4.047522693872e-002 -4.589209333062e-002  2.608213126659e-001 -4.048988968134e-002 -4.597615450621e-002  2.609138786793e-001 -4.050455242395e-002 -4.606021940708e-002 
 2.610064446926e-001 -4.051921144128e-002 -4.614428430796e-002  2.610990107059e-001 -4.053387418389e-002 -4.622834920883e-002  2.611915767193e-001 -4.054853320122e-002 -4.631241410971e-002 
 2.612841427326e-001 -4.056319594383e-002 -4.639647901058e-002  2.613767087460e-001 -4.057785868645e-002 -4.648054391146e-002  2.614692747593e-001 -4.059251770377e-002 -4.656460881233e-002 
 2.615618407726e-001 -4.060718044639e-002 -4.664866998792e-002  2.616544067860e-001 -4.062183946371e-002 -4.673273488879e-002  2.617469727993e-001 -4.063650220633e-002 -4.681679978967e-002 
[...]
CELL_DATA 15200
POINT_DATA 15504
SCALARS absind_acinus float
LOOKUP_TABLE default
 0.000000000000e+000  0.000000000000e+000  0.000000000000e+000  0.000000000000e+000  0.000000000000e+000  0.000000000000e+000  0.000000000000e+000  0.000000000000e+000  0.000000000000e+000 
 0.000000000000e+000  0.000000000000e+000  0.000000000000e+000  0.000000000000e+000  0.000000000000e+000  0.000000000000e+000  0.000000000000e+000  0.000000000000e+000  0.000000000000e+000 
 0.000000000000e+000  0.000000000000e+000  0.000000000000e+000  0.000000000000e+000  0.000000000000e+000  0.000000000000e+000  0.000000000000e+000  0.000000000000e+000  0.000000000000e+000 
 0.000000000000e+000  0.000000000000e+000  0.000000000000e+000  0.000000000000e+000  0.000000000000e+000  0.000000000000e+000  0.000000000000e+000  0.000000000000e+000  0.000000000000e+000 
 0.000000000000e+000  0.000000000000e+000  0.000000000000e+000  0.000000000000e+000  0.000000000000e+000  0.000000000000e+000  0.000000000000e+000  0.000000000000e+000  0.000000000000e+000 
 0.000000000000e+000  0.000000000000e+000  0.000000000000e+000  0.000000000000e+000  0.000000000000e+000  0.000000000000e+000  1.000000000000e+000  1.000000000000e+000  1.000000000000e+000 
 1.000000000000e+000  1.000000000000e+000  1.000000000000e+000  1.000000000000e+000  1.000000000000e+000  1.000000000000e+000  1.000000000000e+000  1.000000000000e+000  1.000000000000e+000 
 1.000000000000e+000  1.000000000000e+000  1.000000000000e+000  1.000000000000e+000  1.000000000000e+000  1.000000000000e+000  1.000000000000e+000  1.000000000000e+000  1.000000000000e+000 
 1.000000000000e+000  1.000000000000e+000  1.000000000000e+000  1.000000000000e+000  1.000000000000e+000  1.000000000000e+000  1.000000000000e+000  1.000000000000e+000  1.000000000000e+000 
 1.000000000000e+000  1.000000000000e+000  1.000000000000e+000  1.000000000000e+000  1.000000000000e+000  1.000000000000e+000  1.000000000000e+000  1.000000000000e+000  1.000000000000e+000 
 1.000000000000e+000  1.000000000000e+000  1.000000000000e+000  1.000000000000e+000  1.000000000000e+000  1.000000000000e+000  1.000000000000e+000  1.000000000000e+000  1.000000000000e+000 
 1.000000000000e+000  1.000000000000e+000  1.000000000000e+000  2.000000000000e+000  2.000000000000e+000  2.000000000000e+000  2.000000000000e+000  2.000000000000e+000  2.000000000000e+000 
 2.000000000000e+000  2.000000000000e+000  2.000000000000e+000  2.000000000000e+000  2.000000000000e+000  2.000000000000e+000  2.000000000000e+000  2.000000000000e+000  2.000000000000e+000 
 2.000000000000e+000  2.000000000000e+000  2.000000000000e+000  2.000000000000e+000  2.000000000000e+000  2.000000000000e+000  2.000000000000e+000  2.000000000000e+000  2.000000000000e+000 
 2.000000000000e+000  2.000000000000e+000  2.000000000000e+000  2.000000000000e+000  2.000000000000e+000  2.000000000000e+000  2.000000000000e+000  2.000000000000e+000  2.000000000000e+000 
 2.000000000000e+000  2.000000000000e+000  2.000000000000e+000  2.000000000000e+000  2.000000000000e+000  2.000000000000e+000  2.000000000000e+000  2.000000000000e+000  2.000000000000e+000 
 2.000000000000e+000  2.000000000000e+000  2.000000000000e+000  2.000000000000e+000  2.000000000000e+000  2.000000000000e+000  2.000000000000e+000  2.000000000000e+000  2.000000000000e+000 
 3.000000000000e+000  3.000000000000e+000  3.000000000000e+000  3.000000000000e+000  3.000000000000e+000  3.000000000000e+000  3.000000000000e+000  3.000000000000e+000  3.000000000000e+000 
 3.000000000000e+000  3.000000000000e+000  3.000000000000e+000  3.000000000000e+000  3.000000000000e+000  3.000000000000e+000  3.000000000000e+000  3.000000000000e+000  3.000000000000e+000 
 3.000000000000e+000  3.000000000000e+000  3.000000000000e+000  3.000000000000e+000  3.000000000000e+000  3.000000000000e+000  3.000000000000e+000  3.000000000000e+000  3.000000000000e+000 
 3.000000000000e+000  3.000000000000e+000  3.000000000000e+000  3.000000000000e+000  3.000000000000e+000  3.000000000000e+000  3.000000000000e+000  3.000000000000e+000  3.000000000000e+000 
 3.000000000000e+000  3.000000000000e+000  3.000000000000e+000  3.000000000000e+000  3.000000000000e+000  3.000000000000e+000  3.000000000000e+000  3.000000000000e+000  3.000000000000e+000 
 3.000000000000e+000  3.000000000000e+000  3.000000000000e+000  3.000000000000e+000  3.000000000000e+000  3.000000000000e+000  4.000000000000e+000  4.000000000000e+000  4.000000000000e+000 
 4.000000000000e+000  4.000000000000e+000  4.000000000000e+000  4.000000000000e+000  4.000000000000e+000  4.000000000000e+000  4.000000000000e+000  4.000000000000e+000  4.000000000000e+000 
 4.000000000000e+000  4.000000000000e+000  4.000000000000e+000  4.000000000000e+000  4.000000000000e+000  4.000000000000e+000  4.000000000000e+000  4.000000000000e+000  4.000000000000e+000 
 4.000000000000e+000  4.000000000000e+000  4.000000000000e+000  4.000000000000e+000  4.000000000000e+000  4.000000000000e+000  4.000000000000e+000  4.000000000000e+000  4.000000000000e+000 
 4.000000000000e+000  4.000000000000e+000  4.000000000000e+000  4.000000000000e+000  4.000000000000e+000  4.000000000000e+000  4.000000000000e+000  4.000000000000e+000  4.000000000000e+000 
 4.000000000000e+000  4.000000000000e+000  4.000000000000e+000  4.000000000000e+000  4.000000000000e+000  4.000000000000e+000  4.000000000000e+000  4.000000000000e+000  4.000000000000e+000 
 4.000000000000e+000  4.000000000000e+000  4.000000000000e+000  5.000000000000e+000  5.000000000000e+000  5.000000000000e+000  5.000000000000e+000  5.000000000000e+000  5.000000000000e+000 
 5.000000000000e+000  5.000000000000e+000  5.000000000000e+000  5.000000000000e+000  5.000000000000e+000  5.000000000000e+000  5.000000000000e+000  5.000000000000e+000  5.000000000000e+000 
 5.000000000000e+000  5.000000000000e+000  5.000000000000e+000  5.000000000000e+000  5.000000000000e+000  5.000000000000e+000  5.000000000000e+000  5.000000000000e+000  5.000000000000e+000 
 5.000000000000e+000  5.000000000000e+000  5.000000000000e+000  5.000000000000e+000  5.000000000000e+000  5.000000000000e+000  5.000000000000e+000  5.000000000000e+000  5.000000000000e+000 
 5.000000000000e+000  5.000000000000e+000  5.000000000000e+000  5.000000000000e+000  5.000000000000e+000  5.000000000000e+000  5.000000000000e+000  5.000000000000e+000  5.000000000000e+000 
 5.000000000000e+000  5.000000000000e+000  5.000000000000e+000  5.000000000000e+000  5.000000000000e+000  5.000000000000e+000  5.000000000000e+000  5.000000000000e+000  5.000000000000e+000 
 6.000000000000e+000  6.000000000000e+000  6.000000000000e+000  6.000000000000e+000  6.000000000000e+000  6.000000000000e+000  6.000000000000e+000  6.000000000000e+000  6.000000000000e+000 
 6.000000000000e+000  6.000000000000e+000  6.000000000000e+000  6.000000000000e+000  6.000000000000e+000  6.000000000000e+000  6.000000000000e+000  6.000000000000e+000  6.000000000000e+000 
 6.000000000000e+000  6.000000000000e+000  6.000000000000e+000  6.000000000000e+000  6.000000000000e+000  6.000000000000e+000  6.000000000000e+000  6.000000000000e+000  6.000000000000e+000 
 6.000000000000e+000  6.000000000000e+000  6.000000000000e+000  6.000000000000e+000  6.000000000000e+000  6.000000000000e+000  6.000000000000e+000  6.000000000000e+000  6.000000000000e+000 
 6.000000000000e+000  6.000000000000e+000  6.000000000000e+000  6.000000000000e+000  6.000000000000e+000  6.000000000000e+000  6.000000000000e+000  6.000000000000e+000  6.000000000000e+000 
 6.000000000000e+000  6.000000000000e+000  6.000000000000e+000  6.000000000000e+000  6.000000000000e+000  6.000000000000e+000  7.000000000000e+000  7.000000000000e+000  7.000000000000e+000 
 7.000000000000e+000  7.000000000000e+000  7.000000000000e+000  7.000000000000e+000  7.000000000000e+000  7.000000000000e+000  7.000000000000e+000  7.000000000000e+000  7.000000000000e+000 
 7.000000000000e+000  7.000000000000e+000  7.000000000000e+000  7.000000000000e+000  7.000000000000e+000  7.000000000000e+000  7.000000000000e+000  7.000000000000e+000  7.000000000000e+000 
 7.000000000000e+000  7.000000000000e+000  7.000000000000e+000  7.000000000000e+000  7.000000000000e+000  7.000000000000e+000  7.000000000000e+000  7.000000000000e+000  7.000000000000e+000 
 7.000000000000e+000  7.000000000000e+000  7.000000000000e+000  7.000000000000e+000  7.000000000000e+000  7.000000000000e+000  7.000000000000e+000  7.000000000000e+000  7.000000000000e+000 
 7.000000000000e+000  7.000000000000e+000  7.000000000000e+000  7.000000000000e+000  7.000000000000e+000  7.000000000000e+000  7.000000000000e+000  7.000000000000e+000  7.000000000000e+000 
 7.000000000000e+000  7.000000000000e+000  7.000000000000e+000  8.000000000000e+000  8.000000000000e+000  8.000000000000e+000  8.000000000000e+000  8.000000000000e+000  8.000000000000e+000 
 8.000000000000e+000  8.000000000000e+000  8.000000000000e+000  8.000000000000e+000  8.000000000000e+000  8.000000000000e+000  8.000000000000e+000  8.000000000000e+000  8.000000000000e+000 
 8.000000000000e+000  8.000000000000e+000  8.000000000000e+000  8.000000000000e+000  8.000000000000e+000  8.000000000000e+000  8.000000000000e+000  8.000000000000e+000  8.000000000000e+000 
 8.000000000000e+000  8.000000000000e+000  8.000000000000e+000  8.000000000000e+000  8.000000000000e+000  8.000000000000e+000  8.000000000000e+000  8.000000000000e+000  8.000000000000e+000 
 8.000000000000e+000  8.000000000000e+000  8.000000000000e+000  8.000000000000e+000  8.000000000000e+000  8.000000000000e+000  8.000000000000e+000  8.000000000000e+000  8.000000000000e+000 
 8.000000000000e+000  8.000000000000e+000  8.000000000000e+000  8.000000000000e+000  8.000000000000e+000  8.000000000000e+000  8.000000000000e+000  8.000000000000e+000  8.000000000000e+000 
 9.000000000000e+000  9.000000000000e+000  9.000000000000e+000  9.000000000000e+000  9.000000000000e+000  9.000000000000e+000  9.000000000000e+000  9.000000000000e+000  9.000000000000e+000 
 9.000000000000e+000  9.000000000000e+000  9.000000000000e+000  9.000000000000e+000  9.000000000000e+000  9.000000000000e+000  9.000000000000e+000  9.000000000000e+000  9.000000000000e+000 
 9.000000000000e+000  9.000000000000e+000  9.000000000000e+000  9.000000000000e+000  9.000000000000e+000  9.000000000000e+000  9.000000000000e+000  9.000000000000e+000  9.000000000000e+000 
 9.000000000000e+000  9.000000000000e+000  9.000000000000e+000  9.000000000000e+000  9.000000000000e+000  9.000000000000e+000  9.000000000000e+000  9.000000000000e+000  9.000000000000e+000 
 9.000000000000e+000  9.000000000000e+000  9.000000000000e+000  9.000000000000e+000  9.000000000000e+000  9.000000000000e+000  9.000000000000e+000  9.000000000000e+000  9.000000000000e+000 
 9.000000000000e+000  9.000000000000e+000  9.000000000000e+000  9.000000000000e+000  9.000000000000e+000  9.000000000000e+000  1.000000000000e+001  1.000000000000e+001  1.000000000000e+001 
 1.000000000000e+001  1.000000000000e+001  1.000000000000e+001  1.000000000000e+001  1.000000000000e+001  1.000000000000e+001  1.000000000000e+001  1.000000000000e+001  1.000000000000e+001 
 1.000000000000e+001  1.000000000000e+001  1.000000000000e+001  1.000000000000e+001  1.000000000000e+001  1.000000000000e+001  1.000000000000e+001  1.000000000000e+001  1.000000000000e+001 
 1.000000000000e+001  1.000000000000e+001  1.000000000000e+001  1.000000000000e+001  1.000000000000e+001  1.000000000000e+001  1.000000000000e+001  1.000000000000e+001  1.000000000000e+001 
 1.000000000000e+001  1.000000000000e+001  1.000000000000e+001  1.000000000000e+001  1.000000000000e+001  1.000000000000e+001  1.000000000000e+001  1.000000000000e+001  1.000000000000e+001 
 1.000000000000e+001  1.000000000000e+001  1.000000000000e+001  1.000000000000e+001  1.000000000000e+001  1.000000000000e+001  1.000000000000e+001  1.000000000000e+001  1.000000000000e+001 
 1.000000000000e+001  1.000000000000e+001  1.000000000000e+001  1.100000000000e+001  1.100000000000e+001  1.100000000000e+001  1.100000000000e+001  1.100000000000e+001  1.100000000000e+001 
 1.100000000000e+001  1.100000000000e+001  1.100000000000e+001  1.100000000000e+001  1.100000000000e+001  1.100000000000e+001  1.100000000000e+001  1.100000000000e+001  1.100000000000e+001 
 1.100000000000e+001  1.100000000000e+001  1.100000000000e+001  1.100000000000e+001  1.100000000000e+001  1.100000000000e+001  1.100000000000e+001  1.100000000000e+001  1.100000000000e+001 
 1.100000000000e+001  1.100000000000e+001  1.100000000000e+001  1.100000000000e+001  1.100000000000e+001  1.100000000000e+001  1.100000000000e+001  1.100000000000e+001  1.100000000000e+001 
 1.100000000000e+001  1.100000000000e+001  1.100000000000e+001  1.100000000000e+001  1.100000000000e+001  1.100000000000e+001  1.100000000000e+001  1.100000000000e+001  1.100000000000e+001 
 1.100000000000e+001  1.100000000000e+001  1.100000000000e+001  1.100000000000e+001  1.100000000000e+001  1.100000000000e+001  1.100000000000e+001  1.100000000000e+001  1.100000000000e+001 
 1.200000000000e+001  1.200000000000e+001  1.200000000000e+001  1.200000000000e+001  1.200000000000e+001  1.200000000000e+001  1.200000000000e+001  1.200000000000e+001  1.200000000000e+001 
 1.200000000000e+001  1.200000000000e+001  1.200000000000e+001  1.200000000000e+001  1.200000000000e+001  1.200000000000e+001  1.200000000000e+001  1.200000000000e+001  1.200000000000e+001 
 1.200000000000e+001  1.200000000000e+001  1.200000000000e+001  1.200000000000e+001  1.200000000000e+001  1.200000000000e+001  1.200000000000e+001  1.200000000000e+001  1.200000000000e+001 
 1.200000000000e+001  1.200000000000e+001  1.200000000000e+001  1.200000000000e+001  1.200000000000e+001  1.200000000000e+001  1.200000000000e+001  1.200000000000e+001  1.200000000000e+001 
 1.200000000000e+001  1.200000000000e+001  1.200000000000e+001  1.200000000000e+001  1.200000000000e+001  1.200000000000e+001  1.200000000000e+001  1.200000000000e+001  1.200000000000e+001 
 1.200000000000e+001  1.200000000000e+001  1.200000000000e+001  1.200000000000e+001  1.200000000000e+001  1.200000000000e+001  1.300000000000e+001  1.300000000000e+001  1.300000000000e+001 
 1.300000000000e+001  1.300000000000e+001  1.300000000000e+001  1.300000000000e+001  1.300000000000e+001  1.300000000000e+001  1.300000000000e+001  1.300000000000e+001  1.300000000000e+001 
 1.300000000000e+001  1.300000000000e+001  1.300000000000e+001  1.300000000000e+001  1.300000000000e+001  1.300000000000e+001  1.300000000000e+001  1.300000000000e+001  1.300000000000e+001 
 1.300000000000e+001  1.300000000000e+001  1.300000000000e+001  1.300000000000e+001  1.300000000000e+001  1.300000000000e+001  1.300000000000e+001  1.300000000000e+001  1.300000000000e+001 
 1.300000000000e+001  1.300000000000e+001  1.300000000000e+001  1.300000000000e+001  1.300000000000e+001  1.300000000000e+001  1.300000000000e+001  1.300000000000e+001  1.300000000000e+001 
 1.300000000000e+001  1.300000000000e+001  1.300000000000e+001  1.300000000000e+001  1.300000000000e+001  1.300000000000e+001  1.300000000000e+001  1.300000000000e+001  1.300000000000e+001 
 1.300000000000e+001  1.300000000000e+001  1.300000000000e+001  1.400000000000e+001  1.400000000000e+001  1.400000000000e+001  1.400000000000e+001  1.400000000000e+001  1.400000000000e+001 
 1.400000000000e+001  1.400000000000e+001  1.400000000000e+001  1.400000000000e+001  1.400000000000e+001  1.400000000000e+001  1.400000000000e+001  1.400000000000e+001  1.400000000000e+001 
 1.400000000000e+001  1.400000000000e+001  1.400000000000e+001  1.400000000000e+001  1.400000000000e+001  1.400000000000e+001  1.400000000000e+001  1.400000000000e+001  1.400000000000e+001 
 1.400000000000e+001  1.400000000000e+001  1.400000000000e+001  1.400000000000e+001  1.400000000000e+001  1.400000000000e+001  1.400000000000e+001  1.400000000000e+001  1.400000000000e+001 
 1.400000000000e+001  1.400000000000e+001  1.400000000000e+001  1.400000000000e+001  1.400000000000e+001  1.400000000000e+001  1.400000000000e+001  1.400000000000e+001  1.400000000000e+001 
 1.400000000000e+001  1.400000000000e+001  1.400000000000e+001  1.400000000000e+001  1.400000000000e+001  1.400000000000e+001  1.400000000000e+001  1.400000000000e+001  1.400000000000e+001 
 1.500000000000e+001  1.500000000000e+001  1.500000000000e+001  1.500000000000e+001  1.500000000000e+001  1.500000000000e+001  1.500000000000e+001  1.500000000000e+001  1.500000000000e+001 
 1.500000000000e+001  1.500000000000e+001  1.500000000000e+001  1.500000000000e+001  1.500000000000e+001  1.500000000000e+001  1.500000000000e+001  1.500000000000e+001  1.500000000000e+001 
 1.500000000000e+001  1.500000000000e+001  1.500000000000e+001  1.500000000000e+001  1.500000000000e+001  1.500000000000e+001  1.500000000000e+001  1.500000000000e+001  1.500000000000e+001 
 1.500000000000e+001  1.500000000000e+001  1.500000000000e+001  1.500000000000e+001  1.500000000000e+001  1.500000000000e+001  1.500000000000e+001  1.500000000000e+001  1.500000000000e+001 
 1.500000000000e+001  1.500000000000e+001  1.500000000000e+001  1.500000000000e+001  1.500000000000e+001  1.500000000000e+001  1.500000000000e+001  1.500000000000e+001  1.500000000000e+001 
 1.500000000000e+001  1.500000000000e+001  1.500000000000e+001  1.500000000000e+001  1.500000000000e+001  1.500000000000e+001  1.600000000000e+001  1.600000000000e+001  1.600000000000e+001 
 1.600000000000e+001  1.600000000000e+001  1.600000000000e+001  1.600000000000e+001  1.600000000000e+001  1.600000000000e+001  1.600000000000e+001  1.600000000000e+001  1.600000000000e+001 
 1.600000000000e+001  1.600000000000e+001  1.600000000000e+001  1.600000000000e+001  1.600000000000e+001  1.600000000000e+001  1.600000000000e+001  1.600000000000e+001  1.600000000000e+001 
 1.600000000000e+001  1.600000000000e+001  1.600000000000e+001  1.600000000000e+001  1.600000000000e+001  1.600000000000e+001  1.600000000000e+001  1.600000000000e+001  1.600000000000e+001 
 1.600000000000e+001  1.600000000000e+001  1.600000000000e+001  1.600000000000e+001  1.600000000000e+001  1.600000000000e+001  1.600000000000e+001  1.600000000000e+001  1.600000000000e+001 
 1.600000000000e+001  1.600000000000e+001  1.600000000000e+001  1.600000000000e+001  1.600000000000e+001  1.600000000000e+001  1.600000000000e+001  1.600000000000e+001  1.600000000000e+001 
 1.600000000000e+001  1.600000000000e+001  1.600000000000e+001  1.700000000000e+001  1.700000000000e+001  1.700000000000e+001  1.700000000000e+001  1.700000000000e+001  1.700000000000e+001 
 1.700000000000e+001  1.700000000000e+001  1.700000000000e+001  1.700000000000e+001  1.700000000000e+001  1.700000000000e+001  1.700000000000e+001  1.700000000000e+001  1.700000000000e+001 
 1.700000000000e+001  1.700000000000e+001  1.700000000000e+001  1.700000000000e+001  1.700000000000e+001  1.700000000000e+001  1.700000000000e+001  1.700000000000e+001  1.700000000000e+001 
 1.700000000000e+001  1.700000000000e+001  1.700000000000e+001  1.700000000000e+001  1.700000000000e+001  1.700000000000e+001  1.700000000000e+001  1.700000000000e+001  1.700000000000e+001 
 1.700000000000e+001  1.700000000000e+001  1.700000000000e+001  1.700000000000e+001  1.700000000000e+001  1.700000000000e+001  1.700000000000e+001  1.700000000000e+001  1.700000000000e+001 
 1.700000000000e+001  1.700000000000e+001  1.700000000000e+001  1.700000000000e+001  1.700000000000e+001  1.700000000000e+001  1.700000000000e+001  1.700000000000e+001  1.700000000000e+001 
 1.800000000000e+001  1.800000000000e+001  1.800000000000e+001  1.800000000000e+001  1.800000000000e+001  1.800000000000e+001  1.800000000000e+001  1.800000000000e+001  1.800000000000e+001 
 1.800000000000e+001  1.800000000000e+001  1.800000000000e+001  1.800000000000e+001  1.800000000000e+001  1.800000000000e+001  1.800000000000e+001  1.800000000000e+001  1.800000000000e+001 